Created on Tue Mar 26 23:07:07 2024 

         256 atoms
         320 bonds
         656 angles
         512 dihedrals
         336 impropers

           4 atom types
           7 bond types
          12 angle types
           4 dihedral types
           1 improper types
           0.000000  21.227710 xlo xhi
           0.000000  21.228559 ylo yhi
           0.000000  10.667449 zlo zhi
          -0.005928  -0.014563  -0.005165 xy xz yz

Masses

    1    26.981538600 # Al6+3
    2     1.007940000 # H_
    3    12.010700000 # C_R
    4    15.999400000 # O_2

Bond Coeffs

    1      181.812522        1.959835  # Al6+3 O_2
    2      602.435128        0.966432  # H_ O_2
    3      357.440381        1.081418  # H_ C_R
    4      391.669513        1.458000  # C_R C_R
    5      714.557442        1.269010  # C_R O_2
    6      462.655054        1.379256  # C_R C_R
    7      603.351210        1.342623  # C_R O_2

Angle Coeffs

    1      123.754183               1               4 # O_2 Al6+3 O_2
    2      137.714246              -1               3 # C_R C_R O_2
    3      206.778426              -1               3 # O_2 C_R O_2
    4      102.183280              -1               3 # C_R C_R C_R
    5      127.652215              -1               3 # C_R C_R O_2
    6      139.329016              -1               3 # C_R C_R O_2
    7       57.289016              -1               3 # H_ C_R C_R
    8      111.297508              -1               3 # C_R C_R C_R
    9       34.077058              -1               3 # Al6+3 O_2 Al6+3
   10       28.020434              -1               3 # Al6+3 O_2 H_
   11       61.291316              -1               3 # Al6+3 O_2 C_R
   12      120.658625              -1               3 # C_R O_2 C_R

Dihedral Coeffs

    1        1.250000              -1               2 # O_2 C_R C_R C_R
    2        6.737110              -1               2 # C_R C_R O_2 Al6+3
    3        3.368555              -1               2 # C_R C_R C_R H_
    4        2.500000               1               2 # C_R C_R O_2 C_R

Improper Coeffs

    1        2.000000        1.000000       -1.000000        0.000000               0 # C_R C_R O_2 O_2

Pair Coeffs

    1        0.505000        4.008153 # Al6+3 Al6+3
    2        0.044000        2.571134 # H_ H_
    3        0.105000        3.430851 # C_R C_R
    4        0.060000        3.118146 # O_2 O_2

Atoms

       1      444        1     1.66863    6.77116   -0.02592    0.04363
       2      444        1     1.66963   14.48200    0.01997   -0.02859
       3      444        1     1.66958   15.88844   19.79410    7.97648
       4      444        1     1.67296    5.27385   19.79216    8.05158
       5      444        1     1.67054   15.93737    1.43950    2.63902
       6      444        1     1.67053    5.32556    1.40041    2.70270
       7      444        1     1.66653    3.87267   -0.00345    5.37053
       8      444        1     1.67003   17.34896   -0.01828    5.31015
       9      444        1     1.66607    5.31073   12.04314    7.96986
      10      444        1     1.66745    3.86661   10.62551    5.30471
      11      444        1     1.66602    5.28738    9.18644    2.63955
      12      444        1     1.66787   14.48957   10.63401    0.02944
      13      444        1     1.66717   15.91940   12.04693    8.03046
      14      444        1     1.66862   15.89224    9.17431    2.70164
      15      444        1     1.66415    6.71956   10.59279   10.63299
      16      444        1     1.66841   17.34125   10.59343    5.36338
      17      444        2     0.42365    4.58901   21.15486    0.95644
      18      444        2     0.42294    5.37453   20.47317    3.66651
      19      444        2     0.42343    5.27428    0.73610    8.98765
      20      444        2     0.42309    6.03169    0.06126    6.32569
      21      444        2     0.42452   16.03740   20.51193    1.65943
      22      444        2     0.42434   15.19319   21.10164    4.32565
      23      444        2     0.42495   15.78813    0.72518    6.99006
      24      444        2     0.42391   16.63034    0.10273    9.67996
      25      444        2     0.42365   15.99045    9.88285    8.98530
      26      444        2     0.42288   16.65072   10.69298    0.98589
      27      444        2     0.42469   15.81773   11.34256    3.65723
      28      444        2     0.42355   15.17644   10.52376    6.31694
      29      444        2     0.42281    4.56220   10.55481    9.70002
      30      444        2     0.42266    5.22441   11.34330    1.68087
      31      444        2     0.42342    6.02249   10.68477    4.35872
      32      444        2     0.42360    5.37292    9.87828    7.01747
      33      444        2     0.15786    1.35253   19.03285   10.17131
      34      444        2     0.15795   19.81895   19.03646   10.16725
      35      444        2     0.15792   12.01471    2.23983    4.80291
      36      444        2     0.15765    9.25466    2.23218    4.82137
      37      444        2     0.15743    7.53610   14.51124    2.12208
      38      444        2     0.15796    7.55866   17.27477    2.13989
      39      444        2     0.15738   19.84509   12.74897   10.18603
      40      444        2     0.15731    1.38293   12.73475   10.18208
      41      444        2     0.15774   19.82619    8.41454    0.50798
      42      444        2     0.15815    1.36084    8.41136    0.50564
      43      444        2     0.15789    1.40968    2.14425    0.53124
      44      444        2     0.15765   19.87098    2.19053    0.53263
      45      444        2     0.15796    3.14885   17.31862    3.19650
      46      444        2     0.15715    3.13244   14.55255    3.18605
      47      444        2     0.15727   11.96615   19.01117    5.84416
      48      444        2     0.15776    9.20590   19.01647    5.84598
      49      444        2     0.15766   13.70081    3.93993    8.50804
      50      444        2     0.15747   13.71383    6.70283    8.51038
      51      444        2     0.15733   18.10511    6.66957    7.50092
      52      444        2     0.15814   18.11121    3.90519    7.48812
      53      444        2     0.15746    7.53078    6.65738    8.56415
      54      444        2     0.15778    7.52750    3.89214    8.57791
      55      444        2     0.15808    3.11492    3.92346    7.46327
      56      444        2     0.15719    3.13177    6.68848    7.46305
      57      444        2     0.15798   13.69706   17.32359    2.14202
      58      444        2     0.15744   13.69039   14.55984    2.14917
      59      444        2     0.15674   18.07770   17.29061    3.17367
      60      444        2     0.15775   18.07359   14.52432    3.17239
      61      444        2     0.15735   11.98718   12.82580    5.85174
      62      444        2     0.15766    9.22269   12.82558    5.85174
      63      444        2     0.15756   11.97476    8.43135    4.80867
      64      444        2     0.15786    9.21174    8.46319    4.81753
      65      444        3     0.59072   13.00765   20.33866    8.31826
      66      444        3     0.06766   11.68754   20.12497    7.71246
      67      444        3    -0.17103   11.29551   19.45683    6.56752
      68      444        3     0.58846    8.17811   20.34057    8.33394
      69      444        3     0.06732    9.49343   20.13007    7.71534
      70      444        3    -0.17194    9.87898   19.45959    6.56933
      71      444        3     0.58730   13.03844    0.88707    2.33820
      72      444        3     0.06760   11.72143    1.10267    2.95062
      73      444        3    -0.17141   11.33864    1.78377    4.09086
      74      444        3     0.59030    8.20698    0.86986    2.36668
      75      444        3     0.06826    9.52774    1.09778    2.96480
      76      444        3    -0.16989    9.92274    1.78079    4.09971
      77      444        3     0.59082    2.39656   20.33982    7.69006
      78      444        3     0.06766    1.07416   20.13318    8.29490
      79      444        3    -0.17139    0.68176   19.47454    9.44517
      80      444        3     0.58752   18.78967   20.35298    7.67832
      81      444        3     0.06706   20.10735   20.13934    8.29159
      82      444        3    -0.17116   20.49273   19.47709    9.44272
      83      444        3     0.58605    2.42495    0.83686    3.01259
      84      444        3     0.06753    1.10513    1.06811    2.41596
      85      444        3    -0.17119    0.72782    1.72654    1.26121
      86      444        3     0.59102   18.81465    0.89015    3.00267
      87      444        3     0.06750   20.14149    1.10293    2.41511
      88      444        3    -0.17074   20.53963    1.74905    1.26068
      89      444        3     0.58821    4.43240   18.33192    5.69524
      90      444        3     0.06669    4.21920   17.01541    5.08688
      91      444        3    -0.17014    3.57196   16.63789    3.92519
      92      444        3     0.59055    4.42403   13.49905    5.66058
      93      444        3     0.06749    4.20603   14.82505    5.07611
      94      444        3    -0.16991    3.56345   15.22216    3.91943
      95      444        3     0.59247    4.42661    2.87044    5.00986
      96      444        3     0.06767    4.20702    4.20267    5.58601
      97      444        3    -0.17073    3.55153    4.59675    6.73617
      98      444        3     0.58671    4.45203    7.72096    4.99098
      99      444        3     0.06784    4.22318    6.39665    5.58334
     100      444        3    -0.17004    3.56281    6.01270    6.73532
     101      444        3     0.06749   14.82220   17.03196    0.28290
     102      444        3    -0.17146   14.14613   16.64738    1.42538
     103      444        3     0.06889   14.81432   14.83693    0.28653
     104      444        3    -0.17118   14.14079   15.23059    1.42805
     105      444        3     0.58751   15.02038   18.34539   10.33857
     106      444        3     0.58935   15.01683   13.50909   10.35084
     107      444        3     0.58991   15.03307    2.89882    0.31853
     108      444        3     0.58781   15.04104    7.73192    0.33144
     109      444        3     0.06857   14.80647    4.21564   10.38071
     110      444        3    -0.17248   14.14584    4.61019    9.23225
     111      444        3     0.06616   14.81902    6.41024   10.38263
     112      444        3    -0.16966   14.15372    6.02678    9.23321
     113      444        3     0.06948    6.41114   17.01306    0.28962
     114      444        3    -0.17198    7.09558   16.61023    1.42144
     115      444        3     0.06730    6.39161   14.81825    0.27650
     116      444        3    -0.17025    7.08282   15.19387    1.41365
     117      444        3     0.58993    6.18325   18.33730   10.36865
     118      444        3     0.58793    6.14941   13.49700   10.33302
     119      444        3     0.58734    6.18065    2.86526    0.35213
     120      444        3     0.59109    6.19630    7.71663    0.33730
     121      444        3     0.06739    6.39260    4.18780   10.43074
     122      444        3    -0.17107    7.07588    4.57089    9.29124
     123      444        3     0.06701    6.40070    6.38220   10.42188
     124      444        3    -0.16908    7.07889    5.98705    9.28484
     125      444        3     0.59180   16.80946   18.32918    5.67135
     126      444        3     0.06795   17.03735   17.00522    5.08080
     127      444        3    -0.17047   17.66485   16.61582    3.91271
     128      444        3     0.58778   16.80210   13.49246    5.67636
     129      444        3     0.06667   17.03053   14.81295    5.07952
     130      444        3    -0.17127   17.66057   15.19924    3.91175
     131      444        3     0.58795   16.79685    2.88169    5.00506
     132      444        3     0.06631   17.00432    4.19905    5.61844
     133      444        3    -0.17134   17.66749    4.58252    6.76882
     134      444        3     0.58984   16.77913    7.71648    5.02768
     135      444        3     0.06779   17.00051    6.39344    5.62740
     136      444        3    -0.17105   17.66645    5.99931    6.77330
     137      444        3     0.59009    2.40319    9.72123    2.98913
     138      444        3     0.06761    1.08095    9.51688    2.37969
     139      444        3    -0.17109    0.68978    8.85596    1.23017
     140      444        3     0.58803   18.79330    9.72738    2.99830
     141      444        3     0.06674   20.11223    9.52177    2.38065
     142      444        3    -0.17125   20.50012    8.85766    1.23124
     143      444        3     0.58822    2.40969   11.50047    7.65912
     144      444        3     0.06684    1.08929   11.72181    8.26045
     145      444        3    -0.17095    0.70520   12.33623    9.43739
     146      444        3     0.59083   18.80149   11.50832    7.67150
     147      444        3     0.06879   20.12502   11.73115    8.26354
     148      444        3    -0.17142   20.51638   12.34238    9.43973
     149      444        3     0.59003   13.01985    9.72728    2.33212
     150      444        3     0.06783   11.69576    9.51471    2.92416
     151      444        3    -0.16989   11.30335    8.86986    4.08137
     152      444        3     0.58658    8.18587    9.76995    2.32892
     153      444        3     0.06791    9.50462    9.54082    2.92896
     154      444        3    -0.17125    9.88766    8.88621    4.08489
     155      444        3     0.58642   13.02072   11.49505    8.33106
     156      444        3     0.06765   11.70240   11.70657    7.71694
     157      444        3    -0.17110   11.31362   12.37753    6.57190
     158      444        3     0.58929    8.18718   11.48996    8.32093
     159      444        3     0.06855    9.50767   11.70721    7.71609
     160      444        3    -0.17129    9.89667   12.37774    6.57147
     161      444        4    -1.00672   15.83898    0.14799    1.26708
     162      444        4    -0.56571   13.07703    0.19384    1.27199
     163      444        4    -0.57955   14.43964    1.92082   10.39564
     164      444        4    -0.60346   14.46516   19.32889    0.27415
     165      444        4    -1.00578   15.76084   21.14828    9.27225
     166      444        4    -0.56195   13.05802   21.05122    9.37381
     167      444        4    -0.58008   13.98148   19.75962    7.73059
     168      444        4    -0.06359   10.59302   20.55621    8.40979
     169      444        4    -0.56736    8.14059   21.03677    9.39824
     170      444        4    -0.60265    7.19879   19.76705    7.73614
     171      444        4    -0.60229   14.01839    1.45252    2.94102
     172      444        4    -0.06413   10.62055    0.66527    2.26427
     173      444        4    -0.56297    8.15617    0.13310    1.32831
     174      444        4    -0.57853    7.23147    1.46165    2.93750
     175      444        4    -1.00473    5.22980    0.11670    4.06856
     176      444        4    -0.56577    2.47147    0.13368    4.07081
     177      444        4    -0.58049    3.82936    1.91019    5.60201
     178      444        4    -1.00432    5.15852   21.13104    6.73511
     179      444        4    -0.56086    2.45237   21.03811    6.62630
     180      444        4    -0.58036    3.36750   19.76636    8.28711
     181      444        4    -0.06352   -0.02014   20.55894    7.59330
     182      444        4    -0.60218    3.89295   19.30959    5.06672
     183      444        4    -0.56596   18.74849   21.03600    6.60603
     184      444        4    -0.60294   17.80913   19.79459    8.28530
     185      444        4    -0.60158    3.40317    1.39716    2.40188
     186      444        4    -0.06240    0.00213    0.66995    3.12460
     187      444        4    -0.56202   18.75716    0.17784    4.05715
     188      444        4    -0.58040   17.84521    1.46297    2.40018
     189      444        4    -0.56778    5.09937   18.37641    6.77735
     190      444        4    -0.06265    4.62442   15.91458    5.79221
     191      444        4    -0.56193    5.15902   13.43762    6.69969
     192      444        4    -0.57889    3.83328   12.53407    5.07024
     193      444        4    -1.00729    5.41048   21.09515    9.39770
     194      444        4    -0.56394    5.42573   18.41847    9.34735
     195      444        4    -0.56380    5.16783    2.79154    3.97789
     196      444        4    -0.06386    4.63373    5.29565    4.87726
     197      444        4    -0.56628    5.15822    7.77348    3.93394
     198      444        4    -0.60374    3.89263    8.69802    5.60468
     199      444        4    -1.00570    5.45297    0.06216    1.39296
     200      444        4    -0.56830    5.45411    2.79513    1.39392
     201      444        4    -0.57979   14.45368   12.54021    0.27277
     202      444        4    -0.56555   15.71321   18.38815    9.27364
     203      444        4    -0.06450   15.23578   15.92579   10.25803
     204      444        4    -0.56057   15.72920   13.45525    9.29636
     205      444        4    -1.00598   15.98463   21.08589    6.60304
     206      444        4    -0.56198   16.09582   18.38301    6.72476
     207      444        4    -0.56085   15.74468    2.84566    1.37375
     208      444        4    -0.06377   15.25346    5.31437    0.41166
     209      444        4    -0.56740   15.72522    7.77216    1.40288
     210      444        4    -1.00679   16.06356    0.07983    3.93416
     211      444        4    -0.56727   16.10779    2.83954    3.93704
     212      444        4    -0.60232   14.46280    8.70632   10.39340
     213      444        4    -0.57814    6.82405   19.29833    0.27010
     214      444        4    -0.60405    6.72553   12.52175    0.27106
     215      444        4    -0.06339    5.94908   15.91857   10.25995
     216      444        4    -0.56682    5.45227   13.45230    9.26991
     217      444        4    -0.06364    5.97583    5.29503    0.45678
     218      444        4    -0.56085    5.48202    7.77662    1.38965
     219      444        4    -0.60191    6.75456    1.89449   10.41228
     220      444        4    -0.57965    6.75565    8.68148   10.40290
     221      444        4    -0.58071   17.37149   19.30322    5.06693
     222      444        4    -0.06203   16.63526   15.91076    5.79626
     223      444        4    -0.56677   16.09973   13.44800    6.73521
     224      444        4    -0.60279   17.35874   12.51348    5.06298
     225      444        4    -0.60222   17.36244    1.90361    5.61097
     226      444        4    -0.06244   16.57616    5.29881    4.92505
     227      444        4    -0.56084   16.04563    7.77494    3.98792
     228      444        4    -0.58017   17.37393    8.68741    5.60574
     229      444        4    -1.00369    5.15936   10.53892    3.93608
     230      444        4    -0.56037    2.45567   10.42423    4.05011
     231      444        4    -0.57925    3.37702    9.14346    2.39890
     232      444        4    -0.06371   -0.01526    9.94515    3.07799
     233      444        4    -1.00385    5.21870   10.74546    6.60560
     234      444        4    -0.56723    2.45803   10.79896    6.59984
     235      444        4    -0.56456   18.74898   10.42126    4.06302
     236      444        4    -0.60382   17.81504    9.15238    2.40039
     237      444        4    -0.60205    3.38623   12.06592    8.26866
     238      444        4    -0.06251   -0.00964   11.33813    7.53986
     239      444        4    -0.56248   18.74794   10.79300    6.61798
     240      444        4    -0.57907   17.82871   12.07547    8.27122
     241      444        4    -1.00377   15.78411   10.53315    1.39680
     242      444        4    -0.56127   13.07882   10.44213    1.27956
     243      444        4    -0.57955   13.98802    9.15106    2.93259
     244      444        4    -0.06312   10.60423    9.94323    2.21808
     245      444        4    -0.56591    8.14063   10.46974    1.26719
     246      444        4    -0.60256    7.20808    9.21156    2.93963
     247      444        4    -1.00404   15.82662   10.74750    9.39642
     248      444        4    -0.56501   13.06573   10.80121    9.39589
     249      444        4    -0.60290   13.99849   12.06512    7.72814
     250      444        4    -0.06379   10.60389   11.27530    8.41043
     251      444        4    -0.56022    8.13055   10.76832    9.37007
     252      444        4    -0.57894    7.21665   12.07552    7.73465
     253      444        4    -1.00565   15.99000   10.47624    4.06248
     254      444        4    -1.00448   16.04107   10.68914    6.72945
     255      444        4    -1.00246    5.37593   10.47653    1.26751
     256      444        4    -1.00284    5.42375   10.68706    9.26980

Bonds

       1        1        1      169
       2        1        1      173
       3        1        1      193
       4        1        1      199
       5        1        1      213
       6        1        1      219
       7        1        2      161
       8        1        2      162
       9        1        2      163
      10        1        2      164
      11        1        2      165
      12        1        2      166
      13        1        3      165
      14        1        3      167
      15        1        3      184
      16        1        3      202
      17        1        3      205
      18        1        3      206
      19        1        4      170
      20        1        4      178
      21        1        4      180
      22        1        4      189
      23        1        4      193
      24        1        4      194
      25        1        5      161
      26        1        5      171
      27        1        5      188
      28        1        5      207
      29        1        5      210
      30        1        5      211
      31        1        6      174
      32        1        6      175
      33        1        6      185
      34        1        6      195
      35        1        6      199
      36        1        6      200
      37        1        7      175
      38        1        7      176
      39        1        7      177
      40        1        7      178
      41        1        7      179
      42        1        7      182
      43        1        8      183
      44        1        8      187
      45        1        8      205
      46        1        8      210
      47        1        8      221
      48        1        8      225
      49        1        9      191
      50        1        9      216
      51        1        9      233
      52        1        9      237
      53        1        9      252
      54        1        9      256
      55        1       10      192
      56        1       10      198
      57        1       10      229
      58        1       10      230
      59        1       10      233
      60        1       10      234
      61        1       11      197
      62        1       11      218
      63        1       11      229
      64        1       11      231
      65        1       11      246
      66        1       11      255
      67        1       12      201
      68        1       12      212
      69        1       12      241
      70        1       12      242
      71        1       12      247
      72        1       12      248
      73        1       13      204
      74        1       13      223
      75        1       13      240
      76        1       13      247
      77        1       13      249
      78        1       13      254
      79        1       14      209
      80        1       14      227
      81        1       14      236
      82        1       14      241
      83        1       14      243
      84        1       14      253
      85        1       15      214
      86        1       15      220
      87        1       15      245
      88        1       15      251
      89        1       15      255
      90        1       15      256
      91        1       16      224
      92        1       16      228
      93        1       16      235
      94        1       16      239
      95        1       16      253
      96        1       16      254
      97        2       17      199
      98        2       18      175
      99        2       19      193
     100        2       20      178
     101        2       21      161
     102        2       22      210
     103        2       23      205
     104        2       24      165
     105        2       25      247
     106        2       26      241
     107        2       27      253
     108        2       28      254
     109        2       29      256
     110        2       30      255
     111        2       31      229
     112        2       32      233
     113        3       33       79
     114        3       34       82
     115        3       35       73
     116        3       36       76
     117        3       37      116
     118        3       38      114
     119        3       39      148
     120        3       40      145
     121        3       41      142
     122        3       42      139
     123        3       43       85
     124        3       44       88
     125        3       45       91
     126        3       46       94
     127        3       47       67
     128        3       48       70
     129        3       49      110
     130        3       50      112
     131        3       51      136
     132        3       52      133
     133        3       53      124
     134        3       54      122
     135        3       55       97
     136        3       56      100
     137        3       57      102
     138        3       58      104
     139        3       59      127
     140        3       60      130
     141        3       61      157
     142        3       62      160
     143        3       63      151
     144        3       64      154
     145        4       65       66
     146        5       65      166
     147        5       65      167
     148        6       66       67
     149        7       66      168
     150        6       67       70
     151        4       68       69
     152        5       68      169
     153        5       68      170
     154        6       69       70
     155        7       69      168
     156        4       71       72
     157        5       71      162
     158        5       71      171
     159        6       72       73
     160        7       72      172
     161        6       73       76
     162        4       74       75
     163        5       74      173
     164        5       74      174
     165        6       75       76
     166        7       75      172
     167        4       77       78
     168        5       77      179
     169        5       77      180
     170        6       78       79
     171        7       78      181
     172        6       79       82
     173        4       80       81
     174        5       80      183
     175        5       80      184
     176        6       81       82
     177        7       81      181
     178        4       83       84
     179        5       83      176
     180        5       83      185
     181        6       84       85
     182        7       84      186
     183        6       85       88
     184        4       86       87
     185        5       86      187
     186        5       86      188
     187        6       87       88
     188        7       87      186
     189        4       89       90
     190        5       89      182
     191        5       89      189
     192        6       90       91
     193        7       90      190
     194        6       91       94
     195        4       92       93
     196        5       92      191
     197        5       92      192
     198        6       93       94
     199        7       93      190
     200        4       95       96
     201        5       95      177
     202        5       95      195
     203        6       96       97
     204        7       96      196
     205        6       97      100
     206        4       98       99
     207        5       98      197
     208        5       98      198
     209        6       99      100
     210        7       99      196
     211        6      101      102
     212        4      101      105
     213        7      101      203
     214        6      102      104
     215        6      103      104
     216        4      103      106
     217        7      103      203
     218        5      105      164
     219        5      105      202
     220        5      106      201
     221        5      106      204
     222        4      107      109
     223        5      107      163
     224        5      107      207
     225        4      108      111
     226        5      108      209
     227        5      108      212
     228        6      109      110
     229        7      109      208
     230        6      110      112
     231        6      111      112
     232        7      111      208
     233        6      113      114
     234        4      113      117
     235        7      113      215
     236        6      114      116
     237        6      115      116
     238        4      115      118
     239        7      115      215
     240        5      117      194
     241        5      117      213
     242        5      118      214
     243        5      118      216
     244        4      119      121
     245        5      119      200
     246        5      119      219
     247        4      120      123
     248        5      120      218
     249        5      120      220
     250        6      121      122
     251        7      121      217
     252        6      122      124
     253        6      123      124
     254        7      123      217