Created on Tue Mar 26 22:46:27 2024 

          40 atoms
          52 bonds
         122 angles
          56 dihedrals
          54 impropers

           4 atom types
           6 bond types
           9 angle types
           3 dihedral types
           1 improper types
           0.000000   7.174180 xlo xhi
           0.000000   7.433901 ylo yhi
           0.000000   9.999452 zlo zhi
          -0.823738  -3.149123  -3.716539 xy xz yz

Masses

    1    26.981538600 # Al6+3
    2     1.007940000 # H_
    3    12.010700000 # C_R
    4    15.999400000 # O_2

Bond Coeffs

    1      181.812522        1.959835  # Al6+3 O_2
    2      602.435128        0.966432  # H_ O_2
    3      357.440381        1.081418  # H_ C_R
    4      391.669513        1.458000  # C_R C_R
    5      714.557442        1.269010  # C_R O_2
    6      462.655054        1.379256  # C_R C_R

Angle Coeffs

    1      123.754183               1               4 # O_2 Al6+3 O_2
    2      137.714246              -1               3 # C_R C_R O_2
    3      206.778426              -1               3 # O_2 C_R O_2
    4      102.183280              -1               3 # C_R C_R C_R
    5      111.297508              -1               3 # C_R C_R C_R
    6       57.289016              -1               3 # H_ C_R C_R
    7       34.077058              -1               3 # Al6+3 O_2 Al6+3
    8       28.020434              -1               3 # Al6+3 O_2 H_
    9       61.291316              -1               3 # Al6+3 O_2 C_R

Dihedral Coeffs

    1        1.250000              -1               2 # O_2 C_R C_R C_R
    2        6.737110              -1               2 # C_R C_R O_2 Al6+3
    3        3.368555              -1               2 # C_R C_R C_R C_R

Improper Coeffs

    1        2.000000        1.000000       -1.000000        0.000000               0 # C_R C_R O_2 O_2

Pair Coeffs

    1        0.505000        4.008153 # Al6+3 Al6+3
    2        0.044000        2.571134 # H_ H_
    3        0.105000        3.430851 # C_R C_R
    4        0.060000        3.118146 # O_2 O_2

Atoms

       1      444        1     1.65857    0.01289   -0.00084    5.83978
       2      444        1     1.65856    3.18833    3.71816    4.15977
       3      444        1     1.64626   -1.98643    1.85868    4.99973
       4      444        1     1.64749    2.01253   -1.85827    4.99973
       5      444        2     0.41785   -2.26758    0.05406    6.70833
       6      444        2     0.41373   -1.22057    5.25410    4.63175
       7      444        2     0.41657    2.29037   -0.05094    6.71043
       8      444        2     0.41461    0.42696    2.18007    4.63845
       9      444        2     0.41773    5.46890    3.66330    3.29112
      10      444        2     0.41364    4.42182   -1.53674    5.36771
      11      444        2     0.41658    0.91084    3.76827    3.28912
      12      444        2     0.41466    2.77428    1.53737    5.36101
      13      444        2     0.12728    3.66530    2.48805    0.00120
      14      444        2     0.12726    2.68514    4.94585   -0.00120
      15      444        3     0.62462    0.59448   -2.26960    7.50109
      16      444        3    -0.02738    0.45169   -3.01431    8.78932
      17      444        3     0.62697   -0.57049    2.26798    7.50309
      18      444        3    -0.03170   -0.41609    3.01525    8.78912
      19      444        3     0.62454    2.60677    5.98696    2.49836
      20      444        3    -0.02728    2.74962    6.73174    1.21013
      21      444        3     0.62705    3.77181    1.44938    2.49636
      22      444        3    -0.03187    3.61734    0.70211    1.21033
      23      444        3    -0.11722    3.61932    1.39958    0.00020
      24      444        3    -0.11724    2.73105    6.03432   -0.00020
      25      444        4    -0.92630   -1.90416    0.10822    5.81038
      26      444        4    -0.97561    0.23139   -1.42485    4.64045
      27      444        4    -0.60514   -0.14586   -1.24740    7.33140
      28      444        4    -0.57838    0.67801    4.75269    6.70583
      29      444        4    -0.92481    1.93176   -0.10960    5.81038
      30      444        4    -0.97588   -0.20485    1.42802    4.64375
      31      444        4    -0.60682    0.17272    1.24767    7.33090
      32      444        4    -0.57781   -1.48563    2.67406    6.71413
      33      444        4    -0.92626    5.10541    3.60915    4.18907
      34      444        4    -0.97553    2.96982    5.14218    5.35911
      35      444        4    -0.60522    3.34718    4.96477    2.66805
      36      444        4    -0.57825    2.52330   -1.03526    3.29362
      37      444        4    -0.92474    1.26946    3.82692    4.18917
      38      444        4    -0.97585    3.40610    2.28934    5.35571
      39      444        4    -0.60674    3.02859    2.46976    2.66855
      40      444        4    -0.57792    4.68688    1.04330    3.28532

Bonds

       1        1        1       25
       2        1        1       26
       3        1        1       27
       4        1        1       29
       5        1        1       30
       6        1        1       31
       7        1        2       33
       8        1        2       34
       9        1        2       35
      10        1        2       37
      11        1        2       38
      12        1        2       39
      13        1        3       25
      14        1        3       30
      15        1        3       32
      16        1        3       33
      17        1        3       38
      18        1        3       40
      19        1        4       26
      20        1        4       28
      21        1        4       29
      22        1        4       34
      23        1        4       36
      24        1        4       37
      25        2        5       25
      26        2        6       26
      27        2        7       29
      28        2        8       30
      29        2        9       33
      30        2       10       34
      31        2       11       37
      32        2       12       38
      33        3       13       23
      34        3       14       24
      35        4       15       16
      36        5       15       27
      37        5       15       28
      38        6       16       18
      39        6       16       23
      40        4       17       18
      41        5       17       31
      42        5       17       32
      43        6       18       24
      44        4       19       20
      45        5       19       35
      46        5       19       36
      47        6       20       22
      48        6       20       24
      49        4       21       22
      50        5       21       39
      51        5       21       40
      52        6       22       23

Angles

       1        1       25        1       26
       2        1       25        1       27
       3        1       25        1       29
       4        1       25        1       30
       5        1       25        1       31
       6        1       26        1       27
       7        1       26        1       29
       8        1       26        1       30
       9        1       26        1       31
      10        1       27        1       29
      11        1       27        1       30
      12        1       27        1       31
      13        1       29        1       30
      14        1       29        1       31
      15        1       30        1       31
      16        1       33        2       34
      17        1       33        2       35
      18        1       33        2       37
      19        1       33        2       38
      20        1       33        2       39
      21        1       34        2       35
      22        1       34        2       37
      23        1       34        2       38
      24        1       34        2       39
      25        1       35        2       37
      26        1       35        2       38
      27        1       35        2       39
      28        1       37        2       38
      29        1       37        2       39
      30        1       38        2       39
      31        1       25        3       30
      32        1       25        3       32
      33        1       25        3       33
      34        1       25        3       38
      35        1       25        3       40
      36        1       30        3       32
      37        1       30        3       33
      38        1       30        3       38
      39        1       30        3       40
      40        1       32        3       33
      41        1       32        3       38
      42        1       32        3       40
      43        1       33        3       38
      44        1       33        3       40
      45        1       38        3       40
      46        1       26        4       28
      47        1       26        4       29
      48        1       26        4       34
      49        1       26        4       36
      50        1       26        4       37
      51        1       28        4       29
      52        1       28        4       34
      53        1       28        4       36
      54        1       28        4       37
      55        1       29        4       34
      56        1       29        4       36
      57        1       29        4       37
      58        1       34        4       36
      59        1       34        4       37
      60        1       36        4       37
      61        2       16       15       27
      62        2       16       15       28
      63        3       27       15       28
      64        4       15       16       18
      65        4       15       16       23
      66        5       18       16       23
      67        2       18       17       31
      68        2       18       17       32
      69        3       31       17       32
      70        4       16       18       17
      71        5       16       18       24
      72        4       17       18       24
      73        2       20       19       35
      74        2       20       19       36
      75        3       35       19       36
      76        4       19       20       22
      77        4       19       20       24
      78        5       22       20       24
      79        2       22       21       39
      80        2       22       21       40
      81        3       39       21       40
      82        4       20       22       21
      83        5       20       22       23
      84        4       21       22       23
      85        6       13       23       16
      86        6       13       23       22
      87        5       16       23       22
      88        6       14       24       18
      89        6       14       24       20
      90        5       18       24       20
      91        7        1       25        3
      92        8        1       25        5
      93        8        3       25        5
      94        7        1       26        4
      95        8        1       26        6
      96        8        4       26        6
      97        9        1       27       15
      98        9        4       28       15
      99        7        1       29        4
     100        8        1       29        7
     101        8        4       29        7
     102        7        1       30        3
     103        8        1       30        8
     104        8        3       30        8
     105        9        1       31       17
     106        9        3       32       17
     107        7        2       33        3
     108        8        2       33        9
     109        8        3       33        9
     110        7        2       34        4
     111        8        2       34       10
     112        8        4       34       10
     113        9        2       35       19
     114        9        4       36       19
     115        7        2       37        4
     116        8        2       37       11
     117        8        4       37       11
     118        7        2       38        3
     119        8        2       38       12
     120        8        3       38       12
     121        9        2       39       21
     122        9        3       40       21

Dihedrals

       1        1       27       15       16       18
       2        1       27       15       16       23
       3        1       28       15       16       18
       4        1       28       15       16       23
       5        2       16       15       27        1
       6        2       28       15       27        1
       7        2       16       15       28        4
       8        2       27       15       28        4
       9        3       15       16       18       17
      10        3       15       16       18       24
      11        3       23       16       18       17
      12        3       23       16       18       24
      13        3       15       16       23       13
      14        3       15       16       23       22
      15        3       18       16       23       13
      16        3       18       16       23       22
      17        1       31       17       18       16
      18        1       31       17       18       24
      19        1       32       17       18       16
      20        1       32       17       18       24
      21        2       18       17       31        1
      22        2       32       17       31        1
      23        2       18       17       32        3
      24        2       31       17       32        3
      25        3       16       18       24       14
      26        3       16       18       24       20
      27        3       17       18       24       14
      28        3       17       18       24       20
      29        1       35       19       20       22
      30        1       35       19       20       24
      31        1       36       19       20       22
      32        1       36       19       20       24
      33        2       20       19       35        2
      34        2       36       19       35        2
      35        2       20       19       36        4
      36        2       35       19       36        4
      37        3       19       20       22       21
      38        3       19       20       22       23
      39        3       24       20       22       21
      40        3       24       20       22       23
      41        3       19       20       24       14
      42        3       19       20       24       18
      43        3       22       20       24       14
      44        3       22       20       24       18
      45        1       39       21       22       20
      46        1       39       21       22       23
      47        1       40       21       22       20
      48        1       40       21       22       23
      49        2       22       21       39        2
      50        2       40       21       39        2
      51        2       22       21       40        3
      52        2       39       21       40        3
      53        3       20       22       23       13
      54        3       20       22       23       16
      55        3       21       22       23       13
      56        3       21       22       23       16

Impropers

       1        1       15       16       27       28
       2        1       15       27       16       28
       3        1       15       28       16       27
       4        1       16       15       18       23
       5        1       16       18       15       23
       6        1       16       23       15       18
       7        1       17       18       31       32
       8        1       17       31       18       32
       9        1       17       32       18       31
      10        1       18       16       17       24
      11        1       18       17       16       24
      12        1       18       24       16       17
      13        1       19       20       35       36
      14        1       19       35       20       36
      15        1       19       36       20       35
      16        1       20       19       22       24
      17        1       20       22       19       24
      18        1       20       24       19       22
      19        1       21       22       39       40
      20        1       21       39       22       40
      21        1       21       40       22       39
      22        1       22       20       21       23
      23        1       22       21       20       23
      24        1       22       23       20       21
      25        1       23       13       16       22
      26        1       23       16       13       22
      27        1       23       22       13       16
      28        1       24       14       18       20
      29        1       24       18       14       20
      30        1       24       20       14       18
      31        1       25        1        3        5
      32        1       25        3        1        5
      33        1       25        5        1        3
      34        1       26        1        4        6
      35        1       26        4        1        6
      36        1       26        6        1        4
      37        1       29        1        4        7
      38        1       29        4        1        7
      39        1       29        7        1        4
      40        1       30        1        3        8
      41        1       30        3        1        8
      42        1       30        8        1        3
      43        1       33        2        3        9
      44        1       33        3        2        9
      45        1       33        9        2        3
      46        1       34        2        4       10
      47        1       34        4        2       10
      48        1       34       10        2        4
      49        1       37        2        4       11
      50        1       37        4        2       11
      51        1       37       11        2        4
      52        1       38        2        3       12
      53        1       38        3        2       12
      54        1       38       12        2        3
